 &FCI NORB=  3,NELEC=2,MS2=0,
  ORBSYM=1,1,1,
  ISYM=1,
 &END
4.0 1 1 1 1 
4.0 2 2 2 2 
4.0 3 3 3 3 
-1.0 1 2 0 0 
-1.0 2 1 0 0 
-1.0 2 3 0 0 
-1.0 3 2 0 0
-2.0 2 2 0 0  
