 &FCI NORB=  2,NELEC=2,MS2=0,
  ORBSYM=1,1,
  ISYM=1,
 &END
1.0 1 1 1 1 
1.0 2 2 2 2 
-1.0 1 2 0 0 
-1.0 2 1 0 0 
